// Copyright (c) 2025-2026 David Krach, Daniel Rostan. All rights reserved.
// Part of HOOMD-blue, released under the BSD 3-Clause License.

#pragma once

#ifdef ENABLE_HIP
#include <hip/hip_runtime.h>
#endif
